  VARIABLES = "X", "Y", "U", "V"
  ZONE I=          11 , J=          10 , DATAPACKING=BLOCK, VARLOCATION=([3,4]=CELLCENTERED)
  -1.6666666666666665      -0.83333333333333326        0.0000000000000000       0.83333335816860199        2.0000000000000000        2.5000000000000000        3.0000000000000000        4.1666665673255920        5.0000000000000000        5.8333333333333330        6.6666666666666661       -1.6666666666666665      -0.83333333333333326        0.0000000000000000       0.83333335816860199        2.0000000000000000        2.5000000000000000        3.0000000000000000        4.1666665673255920        5.0000000000000000        5.8333333333333330        6.6666666666666661       -1.6666666666666665      -0.83333333333333326        0.0000000000000000       0.83333335816860199        2.0000000000000000        2.5000000000000000        3.0000000000000000        4.1666665673255920        5.0000000000000000        5.8333333333333330        6.6666666666666661       -1.6666666666666665      -0.83333333333333326        0.0000000000000000       0.83333335816860199        1.6666667143107845        2.5000000026129090        3.3333334246397963        4.1666665752224086        5.0000000000000000        5.8333333333333330        6.6666666666666661       -1.6666666666666665      -0.83333333333333326        0.0000000000000000       0.83333335816860199        1.6666667133523212        2.5000000038558765        3.3333334208627496        4.1666665788529205        5.0000000000000000        5.8333333333333330        6.6666666666666661       -1.6666666666666665      -0.83333333333333326        0.0000000000000000       0.83333335816860199        1.6666667128947830        2.5000000044471307        3.3333334191019848        4.1666665805213636        5.0000000000000000        5.8333333333333330        6.6666666666666661       -1.6666666666666665      -0.83333333333333326        0.0000000000000000       0.83333335816860199        1.6666667126741304        2.5000000047283244        3.3333334182981114        4.1666665812882595        5.0000000000000000        5.8333333333333330        6.6666666666666661       -1.6666666666666665      -0.83333333333333326        0.0000000000000000       0.83333335816860199        2.0000000000000000        2.5000000000000000        3.0000000000000000        4.1666665673255920        5.0000000000000000        5.8333333333333330        6.6666666666666661       -1.6666666666666665      -0.83333333333333326        0.0000000000000000       0.83333335816860199        2.0000000000000000        2.5000000000000000        3.0000000000000000        4.1666665673255920        5.0000000000000000        5.8333333333333330        6.6666666666666661       -1.6666666666666665      -0.83333333333333326        0.0000000000000000       0.83333335816860199        2.0000000000000000        2.5000000000000000        3.0000000000000000        4.1666665673255920        5.0000000000000000        5.8333333333333330        6.6666666666666661     
 -0.40000000000000002      -0.40000000000000002      -0.40000000000000002      -0.40000000000000002      -0.40000000000000002      -0.29999999850988390      -0.40000000000000002      -0.40000000000000002      -0.40000000000000002      -0.40000000000000002      -0.40000000000000002      -0.20000000000000001      -0.20000000000000001      -0.20000000000000001      -0.20000000000000001      -0.20000000000000001       -9.9999998509883892E-002 -0.20000000000000001      -0.20000000000000001      -0.20000000000000001      -0.20000000000000001      -0.20000000000000001        0.0000000000000000        0.0000000000000000        0.0000000000000000        0.0000000000000000        0.0000000000000000       0.10000000149011612        0.0000000000000000        0.0000000000000000        0.0000000000000000        0.0000000000000000        0.0000000000000000       0.20000000298023224       0.20000000298023224       0.20000000298023224       0.20000000298023221       0.20179508022961032       0.25789871220358546       0.20173792916758373       0.20004732926734259       0.20000000298023224       0.20000000298023224       0.20000000298023224       0.40000000596046448       0.40000000596046448       0.40000000596046448       0.40000001300526455       0.40144625632114150       0.41830136157852799       0.40137295425836023       0.40005977478911775       0.40000000596046448       0.40000000596046448       0.40000000596046448       0.60000002384185791       0.60000002384185791       0.60000002384185791       0.60000001308281736       0.60008590182988930       0.57989347577397932       0.60004838664064819       0.60002958356360947       0.60000002384185791       0.60000002384185791       0.60000002384185791       0.80000001192092896       0.80000001192092896       0.80000001192092896       0.80000000683439310       0.79824575528091291       0.74205064765592399       0.79828385189961570       0.79996725327140350       0.80000001192092896       0.80000001192092896       0.80000001192092896        1.0000000000000000        1.0000000000000000        1.0000000000000000        1.0000000000000000        1.0000000000000000       0.89999999850988388        1.0000000000000000        1.0000000000000000        1.0000000000000000        1.0000000000000000        1.0000000000000000        1.2000000000000000        1.2000000000000000        1.2000000000000000        1.2000000000000000        1.2000000000000000        1.0999999985098838        1.2000000000000000        1.2000000000000000        1.2000000000000000        1.2000000000000000        1.2000000000000000        1.3999999999999999        1.3999999999999999        1.3999999999999999        1.3999999999999999        1.3999999999999999        1.2999999985098838        1.3999999999999999        1.3999999999999999        1.3999999999999999        1.3999999999999999        1.3999999999999999     
   0.0000000000000000        0.0000000000000000       0.28744723818833046       0.26730441377144704       0.24027358089279574       0.31687904399175693       0.26710228073231451       0.26528913599980686        0.0000000000000000        0.0000000000000000        0.0000000000000000        0.0000000000000000       0.29137527592950480       0.27632301873355225       0.24211386964735090       0.32897750764638434       0.27622882397112269       0.27049394708710539        0.0000000000000000        0.0000000000000000       0.29999999999999999       0.29999999999999999       0.27898436555989625       0.27476371124353294       0.28679288106713346       0.29420013134044221       0.27440648195936473       0.26995222243671690       0.26549796291406907       0.26549796291406907       0.29999999999999999       0.29999999999999999       0.27525197320078171       0.26637302041794259       0.29291962201517963       0.29795099315842744       0.26619427818667801       0.26473615858190996       0.26327803897714191       0.26327803897714191       0.29999999999999999       0.29999999999999999       0.27516449933284992       0.26635927680668570       0.29328710921818435       0.29805353590694422       0.26630477087250726       0.26506788142652021       0.26383099198053317       0.26383099198053317       0.29999999999999999       0.29999999999999999       0.27504802417010626       0.26627332078533011       0.29304774395555588       0.29764864031474431       0.26628478941101547       0.26525854352316341       0.26423229763531136       0.26423229763531136       0.29999999999999999       0.29999999999999999       0.28082258480894817       0.27098607082250992       0.29331713826156219       0.29860801639309842       0.27064872010578028       0.26775460996814465       0.26486049983050902       0.26486049983050902        0.0000000000000000        0.0000000000000000       0.29324514220816000       0.27191961383363195       0.31406753471871673       0.27025079751326714       0.27185635534696873       0.26820156083423186        0.0000000000000000        0.0000000000000000        0.0000000000000000        0.0000000000000000       0.28723757108982645       0.26706597992988501       0.31335558593172741       0.24458780085424536       0.26707531513770999       0.26580671810610551        0.0000000000000000        0.0000000000000000     
   0.0000000000000000        0.0000000000000000        8.6374309031116701E-004   8.6525555964404310E-002  0.18926501907667612       -1.3196831963520386E-002   8.7443536573621125E-002   8.7444847573398224E-002   0.0000000000000000        0.0000000000000000        0.0000000000000000        0.0000000000000000        8.6288246265809514E-004   7.2484275934713474E-002  0.17329010262254813        2.6487137607046539E-002   7.3132126824691390E-002   7.3272355156247790E-002   0.0000000000000000        0.0000000000000000        0.0000000000000000        0.0000000000000000        0.0000000000000000       -7.2075242786148269E-002  -6.6068353590538295E-002 -0.15134778844702532       -7.2649658177119034E-002  -7.2983588971787292E-002  -7.3317519766455549E-002  -7.3317519766455549E-002   0.0000000000000000        0.0000000000000000        0.0000000000000000       -8.6224067011803532E-002  -8.1827959772250880E-002 -0.10983183053197131       -8.7146276087523358E-002  -8.7252476015578256E-002  -8.7358675943633154E-002  -8.7358675943633154E-002   0.0000000000000000        0.0000000000000000        0.0000000000000000       -8.6676495339320925E-002  -9.6376115671315474E-002  -9.5261044938507344E-002  -8.7092556805474217E-002  -8.7178035698394440E-002  -8.7263514591314664E-002  -8.7263514591314664E-002   0.0000000000000000        0.0000000000000000        0.0000000000000000       -8.7249225599446298E-002 -0.11031288335372755       -8.1345021855454738E-002  -8.6625739171971000E-002  -8.6690904973921248E-002  -8.6756070775871497E-002  -8.6756070775871497E-002   0.0000000000000000        0.0000000000000000        0.0000000000000000      -0.10118885981886758      -0.10840597869095923       -2.2189372766837748E-002 -0.10086659955779284      -0.10114660577600758      -0.10142661199422232      -0.10142661199422232        0.0000000000000000        0.0000000000000000        8.6186743244233074E-004  0.10153745394623577       -1.2813265691692926E-002  0.13692620824910071       0.10131666656803855       0.10117967348925715        0.0000000000000000        0.0000000000000000        0.0000000000000000        0.0000000000000000        8.6359145940374273E-004   8.7508954573880401E-002  -1.0898070232062476E-002  0.19044138514996964        8.6882906979268010E-002   8.6880254219148648E-002   0.0000000000000000        0.0000000000000000     
