  VARIABLES = "X", "Y", "U", "V"
  ZONE I=          55 , J=          25 , DATAPACKING=BLOCK, VARLOCATION=([3,4]=CELLCENTERED)
 -0.19999999552965164       -9.9999997764825821E-002   0.0000000000000000       0.10343388702592383       0.20686778322690977       0.31030170266249241       0.41373567159644475       0.51716974214877065       0.62060401929521603       0.72403871516103102       0.82747425867550273       0.93091151734820676        1.0343522462533279        1.1377999983051368        1.2412619745773239        1.3447528038517405        1.4483023339868795        1.5519719705445629        1.6558900236490428        1.7603323010562739        1.8659182182734475        2.0000000000000000        2.1155384716827048        2.2082126048833146        2.2893251427315375        2.3631483419282837        2.4326041444253987        2.5000001800327771        2.5673962194253170        2.6368520334411953        2.7106752523413227        2.7917878186239125        2.8844619885684053        3.0000000000000000        3.1340822830459936        3.2396682012215416        3.3441104752658628        3.4480285208616097        3.5516981458593659        3.6552476604877904        3.7587384704400599        3.8622004237358949        3.9656481493477185        4.0690888485676728        4.1725260745546207        4.2759615826515365        4.3793962406588740        4.4828304778165782        4.5862645065778560        4.6896984322610571        4.7931323073406809        4.8965661584439797        5.0000000000000000        5.0999999977648258        5.1999999955296516      -0.19999999552965164       -9.9999997764825821E-002   0.0000000000000000       0.10343388702592383       0.20686778322690977       0.31030170266249241       0.41373567159644475       0.51716974214877065       0.62060401929521603       0.72403871516103102       0.82747425867550273       0.93091151734820676        1.0343522462533279        1.1377999983051368        1.2412619745773239        1.3447528038517405        1.4483023339868795        1.5519719705445629        1.6558900236490428        1.7603323010562739        1.8659182182734475        2.0000000000000000        2.1155384716827048        2.2082126048833146        2.2893251427315375        2.3631483419282837        2.4326041444253987        2.5000001800327771        2.5673962194253170        2.6368520334411953        2.7106752523413227        2.7917878186239125        2.8844619885684053        3.0000000000000000        3.1340822830459936        3.2396682012215416        3.3441104752658628        3.4480285208616097        3.5516981458593659        3.6552476604877904        3.7587384704400599        3.8622004237358949        3.9656481493477185        4.0690888485676728        4.1725260745546207        4.2759615826515365        4.3793962406588740        4.4828304778165782        4.5862645065778560        4.6896984322610571        4.7931323073406809        4.8965661584439797        5.0000000000000000        5.0999999977648258        5.1999999955296516      -0.19999999552965164       -9.9999997764825821E-002   0.0000000000000000       0.10343388702592383       0.20686778322690977       0.31030170266249241       0.41373567159644475       0.51716974214877065       0.62060401929521603       0.72403871516103102       0.82747425867550273       0.93091151734820676        1.0343522462533279        1.1377999983051368        1.2412619745773239        1.3447528038517405        1.4483023339868795        1.5519719705445629        1.6558900236490428        1.7603323010562739        1.8659182182734475        2.0000000000000000        2.1155384716827048        2.2082126048833146        2.2893251427315375        2.3631483419282837        2.4326041444253987        2.5000001800327771        2.5673962194253170        2.6368520334411953        2.7106752523413227        2.7917878186239125        2.8844619885684053        3.0000000000000000        3.1340822830459936        3.2396682012215416        3.3441104752658628        3.4480285208616097        3.5516981458593659        3.6552476604877904        3.7587384704400599        3.8622004237358949        3.9656481493477185        4.0690888485676728        4.1725260745546207        4.2759615826515365        4.3793962406588740        4.4828304778165782        4.5862645065778560        4.6896984322610571        4.7931323073406809        4.8965661584439797        5.0000000000000000        5.0999999977648258        5.1999999955296516      -0.19999999552965164       -9.9999997764825821E-002   0.0000000000000000       0.10343388817619542       0.20686778613051754       0.31030170883678049       0.41373568425625945       0.51716976786632196       0.62060407139478291       0.72403882060617586       0.82747447202423485       0.93091194905674179        1.0343531202315279        1.1378017695510896        1.2412655719164492        1.3447601399138711        1.4483174134256989        1.5520034559498117        1.6559579274297973        1.7604897542305384        1.8663548912342272        1.9759121499140462        2.0981263498449239        2.1945177995008125        2.2789091382848934        2.3561361183609471        2.4290806102747067        2.5000001893212347        2.5709197719583599        2.6438642747357490        2.7210912731735726        2.8054826379985038        2.9018741211820420        3.0240883454601999        3.1336456097455687        3.2395107476454745        3.3440425710819914        3.4479970350618796        3.5516830660380259        3.6552403240574902        3.7587348727494332        3.8621986521574598        3.9656472750584091        4.0690884165717032        4.1725258609443214        4.2759614769727365        4.3793961883554173        4.4828304519265343        4.5862644937783390        4.6896984259809882        4.7931323043660727        4.8965661572580617        5.0000000000000000        5.0999999977648258        5.1999999955296516      -0.19999999552965164       -9.9999997764825821E-002   0.0000000000000000       0.10343388699236175       0.20686778316010199       0.31030170256302009       0.41373567146514934       0.51716974198674659       0.62060401910380214       0.72403871494180017       0.82747425843024869       0.93091151707893105        1.0343522459622230        1.1377999979945708        1.2412619742498194        1.3447528035099579        1.4483023336335952        1.5519719701826478        1.6558900232814444        1.7603323006860108        1.8659182179036677        1.9740512053981898        2.0861694569865303        2.1832814217160381        2.2700175133458971        2.3500538959214587        2.4260020273686491        2.5000001975339972        2.5739983710505330        2.6499465125666255        2.7299829118994592        2.8167190265951052        2.9138310187096534        3.0259492889774546        3.1340822826714887        3.2396682008461126        3.3441104748927768        3.4480285204940038        3.5516981455003056        3.6552476601402648        3.7587384701069566        3.8622004234199769        3.9656481490516002        4.0690888482938039        4.1725260743052601        4.2759615824287343        4.3793962404644571        4.4828304776521302        4.5862645064447110        4.6896984321602870        4.7931323072730780        4.8965661584100610        5.0000000000000000        5.0999999977648258        5.1999999955296516      -0.19999999552965164       -9.9999997764825821E-002   0.0000000000000000       0.10343388361530297       0.20686777467015161       0.31030168459232804       0.41373563475872538       0.51716966762339367       0.62060386872266726       0.72403841091605470       0.82747364370229815       0.93091027372935720        1.0343497297383806        1.1377949005678807        1.2412516280779740        1.3447317287093823        1.4482591118020518        1.5518821587119738        1.6556985680643421        1.7599031236643337        1.8648603145102440        1.9710444028615006        2.0774912639278611        2.1742965376323271        2.2626049237300503        2.3448885417167067        2.4233653202757650        2.5000002046765970        2.5766350921641838        2.6551118799242799        2.7373955129492047        2.8257039190209614        2.9225092147539402        3.0289560910287610        3.1351401857213750        3.2400973775887554        3.3443019298359840        3.4481183316872444        3.5517413670534923        3.6552687346659467        3.7587488160115843        3.8622055205908130        3.9656506650341057        4.0690900914192421        4.1725266888285697        4.2759618862712934        4.3793963906855353        4.4828305518799683        4.5862645430413265        4.6896984500478078        4.7931323157071954        4.8965661617590870        5.0000000000000000        5.0999999977648258        5.1999999955296516      -0.19999999552965164       -9.9999997764825821E-002   0.0000000000000000       0.10343387845067095       0.20686776168137952       0.31030165708744495       0.41373557855850240       0.51716955374034723       0.62060363839086630       0.72403794522899234       0.82747270212798685       0.93090836954409506        1.0343458772446639        1.1377871004555775        1.2412358133155228        1.3446995813860436        1.4481934504982286        1.5517468507201198        1.6554152225560619        1.7592932070666636        1.8634940354732339        1.9678994028023433        2.0709682346833236        2.1672125503350150        2.2565560368772486        2.3405964100697951        2.4211551829431244        2.5000002107698949        2.5788452414143719        2.6594040226167879        2.7434444091696712        2.8327879128623676        2.9290322464613237        3.0321010911380117        3.1365064645647753        3.2407072939831161        3.3445852751312293        3.4482536394556957        3.5518070281278131        3.6553008817589148        3.7587646305476077        3.8622133204847162        3.9656545173208202        4.0690919954116609        4.1725276302264636        4.2759623518002412        4.3793966208790795        4.4828306656459009        4.5862645991466255        4.6896984774807828        4.7931323286476895        4.8965661668994791        5.0000000000000000        5.0999999977648258        5.1999999955296516      -0.19999999552965164       -9.9999997764825821E-002   0.0000000000000000       0.10343387211995438       0.20686774575758315       0.31030162336177813       0.41373550963823369       0.51716941406985772       0.62060335589395599       0.72403737408666247       0.82747154744059415       0.93090603484736734        1.0343411556343816        1.1377775478821250        1.2412164731204027        1.3446603744538892        1.4481137862314239        1.5515843439641095        1.6550816812171394        1.7586034159386841        1.8620648991026794        1.9650317773617816        2.0659925806724018        2.1617004112228262        2.2517280551639267        2.3371158905810288        2.4193482921220784        2.5000002158433823        2.5806521421273825        2.6628845511823651        2.7482723984424644        2.8383000571547514        2.9340079026506762        3.0349687169614192        3.1379356008931882        3.2413970849829683        3.3449188163125867        3.4484161460372813        3.5518866922103229        3.6553400885027965        3.7587839705555317        3.8622228728762380        3.9656592387578176        4.0690943299464495        4.1725287847654196        4.2759629228093718        4.3793969032594289        4.4828308052176107        4.5862646679868089        4.6896985111457727        4.7931323445307434        4.8965661732097372        5.0000000000000000        5.0999999977648258        5.1999999955296516      -0.19999999552965164       -9.9999997764825821E-002   0.0000000000000000       0.10343386538550993       0.20686772881699647       0.31030158747964376       0.41373543630647908       0.51716926545446917       0.62060305530635340       0.72403676639979608       0.82747031901821388       0.93090355165831473        1.0343361360023091        1.1377674010220811        1.2411959624690341        1.3446189185989528        1.4480300215580542        1.5514152495873648        1.6547413032137137        1.7579240098946634        1.8607410230617336        1.9626132074674927        2.0622185134118465        2.1574965923956371        2.2479809023828303        2.3343797394895058        2.4179177818318469        2.5000002199297016        2.5820826603646139        2.6656207095093438        2.7520195571764079        2.8425038800432314        2.9377819717976426        3.0373872873837797        3.1392594769994173        3.2420764909610265        3.3452591942056382        3.4485852402824970        3.5519704567403614        3.6553815442087298        3.7588044810571106        3.8622330195896692        3.9656642582496056        4.0690968130040224        4.1725300130670631        4.2759635303877745        4.3793972037520561        4.4828309537524795        4.5862647412532667        4.6896985469784269        4.7931323614381043        4.8965661799274978        5.0000000000000000        5.0999999977648258        5.1999999955296516      -0.19999999552965164       -9.9999997764825821E-002   0.0000000000000000       0.10343385905860505       0.20686771290090208       0.31030155376597574       0.41373536740419586       0.51716912581453756       0.62060277287762877       0.72403619545780762       0.82746916501897183       0.93090121947457116        1.0343314237551198        1.1377578835475326        1.2411767540636649        1.3445802065053523        1.4479522128082334        1.5512596744877809        1.6544334164934476        1.7573270633306732        1.8596304994676081        1.9607111842296654        2.0594396968994011        2.1544048077357214        2.2451933687894603        2.3323245027576780        2.4168371518969618        2.5000002230604337        2.5831632963761360        2.6676759517419626        2.7548070952608077        2.8455956677748611        2.9405607898448545        3.0392893111531296        3.1403700007099205        3.2426734375010966        3.3455670808526294        3.4487408152869983        3.5520482653834637        3.6554202561897049        3.7588236893482190        3.8622425369517264        3.9656689703887640        4.0690991450862830        4.1725311669729850        4.2759641012458580        4.3793974861072726        4.4828310933300743        4.5862648101049910        4.6896985806537810        4.7931323773284698        4.8965661862414835        5.0000000000000000        5.0999999977648258        5.1999999955296516      -0.19999999552965164       -9.9999997764825821E-002   0.0000000000000000       0.10343385390156726       0.20686769992742196       0.31030152628467389       0.41373531123838747       0.51716901198676712       0.62060254266026937       0.72403573008905031       0.82746822451146562       0.93089931915241031        1.0343275856184255        1.1377501372209935        1.2411611412800558        1.3445488181370051        1.4478894029547282        1.5511350684356786        1.6541901092729485        1.7568655736390359        1.8587999316366401        1.9593488414454059        2.0575293902539955        2.1522863261433551        2.2432699473212567        2.3308966883134250        2.4160832507443928        2.5000002252630229        2.5839172017976693        2.6691037700348725        2.7567305198562178        2.8477141515148654        2.9424710976156563        3.0406516543722981        3.1412005686569069        3.2431349271896233        3.3458103880267820        3.4488654212744239        3.5521110751629013        3.6554516444791689        3.7588393020513795        3.8622502831988048        3.9656728084489949        4.0691010453365308        4.1725321074143205        4.2759645665551025        4.3793977162724866        4.4828312071136232        4.5862648662349335        4.6896986081079035        4.7931323902836986        4.8965661913893577        5.0000000000000000        5.0999999977648258        5.1999999955296516      -0.19999999552965164       -9.9999997764825821E-002   0.0000000000000000       0.10343385053584070       0.20686769146018236       0.31030150834850928       0.41373527458042464       0.51716893769446792       0.62060239240625636       0.72403542637344664       0.82746761075510822       0.93089807923547663        1.0343250820542418        1.1377450871202741        1.2411509727807428        1.3445284114804987        1.4478486973470504        1.5510547578186158        1.6540347353081348        1.7565751547259465        1.8582882565780017        1.9585316304266509        2.0564107931369473        2.1510497025993951        2.2421427680303059        2.3300563579942595        2.4156383216201398        2.5000002265586878        2.5843621334304507        2.6699441026087940        2.7578577009726351        2.8489507763143753        2.9435896954063483        3.0414688656635969        3.1417122437921505        3.2434253461026312        3.3459657619636616        3.4489457318523438        3.5521517807260228        3.6554720510884584        3.7588494705026929        3.8622553332522180        3.9656753119677322        4.0691022852107785        4.1725327211314394        4.2759648702354474        4.3793978664956272        4.4828312813797551        4.5862649028716831        4.6896986260279983        4.7931323987401511        4.8965661947496679        5.0000000000000000        5.0999999977648258        5.1999999955296516      -0.19999999552965164       -9.9999997764825821E-002   0.0000000000000000       0.10343384936703846       0.20686768851974685       0.31030150211966473       0.41373526184973197       0.51716891189387648       0.62060234022560123       0.72403532090031375       0.82746739762144483       0.93089764869637648        1.0343242128706738        1.1377433343334762        1.2411474453334141        1.3445213390273794        1.4478346130191684        1.5510270487056745        1.6539813784130295        1.7564761486619627        1.8581156283991429        1.9582594047927058        2.0560423256732201        2.1506430904827130        2.2417714946912803        2.3297789976319994        2.4154912678341391        2.5000002269610988        2.5845091879943820        2.6702214636669175        2.7582289748699145        2.8493573888091359        2.9439581630671730        3.0417410913707750        3.1418848719844590        3.2435243521581127        3.3460191188437283        3.4489734409485835        3.5521658650368915        3.6554791235247182        3.7588529979336105        3.8622570860233068        3.9656761811365118        4.0691027157361894        4.1725329342526543        4.2759649756974794        4.3793979186666192        4.4828313071721908        4.5862649155957849        4.6896986322518606        4.7931324016772452        4.8965661959167930        5.0000000000000000        5.0999999977648258        5.1999999955296516      -0.19999999552965164       -9.9999997764825821E-002   0.0000000000000000       0.10343385053602609       0.20686769146054712       0.31030150834904119       0.41373527458110443       0.51716893769526739       0.62060239240713588       0.72403542637435170       0.82746761075596353       0.93089807923617995        1.0343250820546519        1.1377450871201964        1.2411509727799084        1.3445284114785325        1.4478486973434239        1.5510547578125775        1.6540347352986011        1.7565751547113373        1.8582882565560614        1.9585316303945071        2.0564107930919953        2.1510497025411910        2.2421427679609658        2.3300563579171176        2.4156383215385562        2.5000002264756684        2.5843621333488276        2.6699441025315891        2.7578577009032399        2.8489507762561592        2.9435896953614535        3.0414688656315798        3.1417122437703831        3.2434253460882143        3.3459657619543246        3.4489457318464964        3.5521517807225784        3.6554720510866647        3.7588494705020219        3.8622553332522922        3.9656753119682824        4.0691022852116099        4.1725327211324110        4.2759648702364546        4.3793978664965962        4.4828312813806281        4.5862649028724212        4.6896986260285747        4.7931323987405445        4.8965661947498660        5.0000000000000000        5.0999999977648258        5.1999999955296516      -0.19999999552965164       -9.9999997764825821E-002   0.0000000000000000       0.10343385390193365       0.20686769992814294       0.31030152628572544       0.41373531123973156       0.51716901198834775       0.62060254266200887       0.72403573009084088       0.82746822451316004       0.93089931915380641        1.0343275856192453        1.1377501372208549        1.2411611412784294        1.3445488181331526        1.4478894029476126        1.5511350684238270        1.6541901092542382        1.7568655736103660        1.8587999315935528        1.9593488413821072        2.0575293901651066        2.1522863260280989        2.2432699471840971        2.3308966881610882        2.4160832505834828        2.5000002250993516        2.5839172016366816        2.6691037698824096        2.7567305197189453        2.8477141513995794        2.9424710975268753        3.0406516543092481        3.1412005686141602        3.2431349271613334        3.3458103880084593        3.4488654212629495        3.5521110751561453        3.6554516444756575        3.7588393020500734        3.8622502831989665        3.9656728084500927        4.0691010453381811        4.1725321074162443        4.2759645665570973        4.3793977162744024        4.4828312071153498        4.5862648662363945        4.6896986081090430        4.7931323902844776        4.8965661913897511        5.0000000000000000        5.0999999977648258        5.1999999955296516      -0.19999999552965164       -9.9999997764825821E-002   0.0000000000000000       0.10343385905914369       0.20686771290196218       0.31030155376752200       0.41373536740617251       0.51716912581686314       0.62060277288018928       0.72403619546044573       0.82746916502147205       0.93090121947663818        1.0343314237563483        1.1377578835473643        1.2411767540613270        1.3445802064997689        1.4479522127978965        1.5512596744705527        1.6544334164662506        1.7573270632890121        1.8596304994049324        1.9607111841371800        2.0594396967685733        2.1544048075657178        2.2451933685875720        2.3323245025341044        2.4168371516612948        2.5000002228208924        2.5831632961403495        2.6676759515181949        2.7548070950587396        2.8455956676048002        2.9405607897141768        3.0392893110610091        3.1403700006477440        3.2426734374599917        3.3455670808259992        3.4487408152703214        3.5520482653736551        3.6554202561846205        3.7588236893463525        3.8622425369519986        3.9656689703904000        4.0690991450887237        4.1725311669758218        4.2759641012487970        4.3793974861100926        4.4828310933326172        4.5862648101071413        4.6896985806554570        4.7931323773296146        4.8965661862420635        5.0000000000000000        5.0999999977648258        5.1999999955296516      -0.19999999552965164       -9.9999997764825821E-002   0.0000000000000000       0.10343386538620768       0.20686772881836971       0.31030158748164716       0.41373543630904069       0.51716926545748443       0.62060305530967552       0.72403676640322268       0.82747031902146817       0.93090355166101713        1.0343361360039398        1.1377674010219228        1.2411959624660962        1.3446189185918580        1.4480300215448747        1.5514152495653775        1.6547413031790112        1.7579240098415356        1.8607410229817349        1.9626132073487523        2.0622185132419939        2.1574965921743625        2.2479809021209829        2.3343797392007857        2.4179177815284034        2.5000002196215778        2.5820826600610087        2.6656207092203590        2.7520195569143064        2.8425038798218578        2.9377819716279698        3.0373872872655094        3.1392594769200626        3.2420764909086146        3.3452591941716636        3.4485852402612194        3.5519704567278629        3.6553815442022803        3.7588044810547823        3.8622330195900783        3.9656642582517625        4.0690968130072083        4.1725300130707543        4.2759635303915893        4.3793972037557136        4.4828309537557773        4.5862647412560538        4.6896985469805985        4.7931323614395875        4.8965661799282501        5.0000000000000000        5.0999999977648258        5.1999999955296516      -0.19999999552965164       -9.9999997764825821E-002   0.0000000000000000       0.10343387212079351       0.20686774575923478       0.31030162336418815       0.41373550964131628       0.51716941407348782       0.62060335589795868       0.72403737409079660       0.82747154744452955       0.93090603485065215        1.0343411556363975        1.1377775478820191        1.2412164731169966        1.3446603744455488        1.4481137862158675        1.5515843439381238        1.6550816811761366        1.7586034158759734        1.8620648990082267        1.9650317772206600        2.0659925804672481        2.1617004109550080        2.2517280548487801        2.3371158902355802        2.4193482917603886        2.5000002154765775        2.5806521417654902        2.6628845508365808        2.7482723981269825        2.8383000568867773        2.9340079024457140        3.0349687168208601        3.1379356007995050        3.2413970849211107        3.3449188162724512        3.4484161460121436        3.5518866921955818        3.6553400884952301        3.7587839705528565        3.8622228728768144        3.9656592387604657        4.0690943299503157        4.1725287847698782        4.2759629228139708        4.3793969032638351        4.4828308052215808        4.5862646679901626        4.6896985111483849        4.7931323445325278        4.8965661732106414        5.0000000000000000        5.0999999977648258        5.1999999955296516      -0.19999999552965164       -9.9999997764825821E-002   0.0000000000000000       0.10343387845162896       0.20686776168326543       0.31030165709019736       0.41373557856202414       0.51716955374449680       0.62060363839544563       0.72403794523372889       0.82747270213250712       0.93090836954788858        1.0343458772470320        1.1377871004555584        1.2412358133117884        1.3446995813767539        1.4481934504808196        1.5517468506909944        1.6554152225101140        1.7592932069964851        1.8634940353676310        1.9678994026435985        2.0709682344472675        2.1672125500268784        2.2565560365177135        2.3405964096786298        2.4211551825354243        2.5000002103570433        2.5788452410064338        2.6594040222252193        2.7434444088097152        2.8327879125540036        2.9290322462254492        3.0321010909799071        3.1365064644600436        3.2407072939139017        3.3445852750862617        3.4482536394275312        3.5518070281113281        3.6553008817505050        3.7587646305447038        3.8622133204854721        3.9656545173239079        4.0690919954161160        4.1725276302315804        4.2759623518055090        4.3793966208841182        4.4828306656504378        4.5862645991504563        4.6896984774837653        4.7931323286497278        4.8965661669005121        5.0000000000000000        5.0999999977648258        5.1999999955296516      -0.19999999552965164       -9.9999997764825821E-002   0.0000000000000000       0.10343388361635265       0.20686777467221817       0.31030168459534480       0.41373563476258646       0.51716966762794547       0.62060386872769457       0.72403841092126164       0.82747364370727916       0.93091027373355917        1.0343497297410456        1.1377949005679666        1.2412516280740433        1.3447317286994454        1.4482591117833403        1.5518821586806175        1.6556985680148755        1.7599031235888909        1.8648603143969731        1.9710444026906422        2.0774912636659186        2.1742965372922005        2.2626049233378538        2.3448885412937446        2.4233653198371377        2.5000002042331446        2.5766350917252892        2.6551118795008577        2.7373955125565073        2.8257039186805248        2.9225092144921447        3.0289560908585984        3.1351401856090484        3.2400973775143544        3.3443019297875796        3.4481183316569330        3.5517413670357882        3.6552687346569690        3.7587488160085596        3.8622055205917460        3.9656506650375580        4.0690900914241679        4.1725266888342025        4.2759618862770807        4.3793963906910651        4.4828305518849421        4.5862645430455258        4.6896984500510781        4.7931323157094292        4.8965661617602194        5.0000000000000000        5.0999999977648258        5.1999999955296516      -0.19999999552965164       -9.9999997764825821E-002   0.0000000000000000       0.10343388699347088       0.20686778316228585       0.31030170256620870       0.41373567146923129       0.51716974199156085       0.62060401910912277       0.72403871494731675       0.82747425843553635       0.93091151708341013        1.0343522459650987        1.1377999979947517        1.2412619742458024        1.3447528034996619        1.4483023336141283        1.5519719701499739        1.6558900232298879        1.7603323006074627        1.8659182177860572        1.9740512052210542        2.0861694567048441        2.1832814213556624        2.2700175129363478        2.3500538954838328        2.4260020269170912        2.5000001970781991        2.5739983705986900        2.6499465121285031        2.7299829114893499        2.8167190262343422        2.9138310184280600        3.0259492888010482        3.1340822825548638        3.2396682007686528        3.3441104748423354        3.4480285204624286        3.5516981454818990        3.6552476601309793        3.7587384701038928        3.8622004234210516        3.9656481490553070        4.0690888482990450        4.1725260743112349        4.2759615824348609        4.3793962404703084        4.4828304776573917        4.5862645064491518     