 VARIABLES = "X", "Y", "RHO", "U", "V", "RHO_E"
 ZONE I=          50 , J=          10 , K=           1 , DATAPACKING=BLOCK, VARLOCATION=([3, 4, 5, 6]=CELLCENTERED)
   0.0000000000000000       0.10774762370148196       0.21549524963373970       0.32324288157448877       0.43099052751866551       0.53873820532458494       0.64648595534233655       0.75423386895797595       0.86198215322802862       0.96973127720851604        1.0774823028799434        1.1852376318427686        1.2930026823944705        1.4007896201779533        1.5086254850264420        1.6165690467725227        1.7247413830627747        1.8333568445013824        2.0000000000000000        2.1164848328384025        2.2066363197052112        2.2855874011410240        2.3569393179103320        2.4235699845702241        2.4877960212402601        2.5516536737439197        2.6171415388319481        2.6864576116760004        2.7622663631832700        2.8478758926554466        3.0000000000000000        3.1204597132616740        3.2256297150202666        3.3303851611422308        3.4349161365532410        3.5393377719549521        3.6437082604808557        3.7480552421353122        3.8523915087041982        3.9567229105667283        4.0610521082759776        4.1653803083593965        4.2697080571774828        4.3740356019561082        4.4783630545177413        4.5826904654300318        4.6870178575637382        4.7913452412819133        4.8956726213303288        5.0000000000000000        0.0000000000000000       0.10774762558319084       0.21549525472555442       0.32324289347423396       0.43099055464257313       0.53873826687202608       0.64648609491156439       0.75423418550207988       0.86198287146959907       0.96973290820329117        1.0774860119209921        1.1852460891053027        1.2930220628299698        1.4008344494248524        1.5087310117565407        1.6168255809204295        1.7254014570554470        1.8352203782035832        1.9486245493851135        2.0715867254200457        2.1723507211698991        2.2597423737415472        2.3392324886621578        2.4139558549801707        2.4862643619803566        2.5582124873181344        2.6318276180028843        2.7093786041734225        2.7938540224068240        2.8904805676540195        3.0086613556389086        3.1185249481708865        3.2249305130433270        3.3301081032778650        3.4347998216706013        3.5392872769513173        3.6436859285808332        3.7480452654900391        3.8523870273376786        3.9567208916605612        4.0610511972845948        4.1653798969412863        4.2697078712945720        4.3740355179604915        4.4783630165705546        4.5826904483077211        4.6870178498817179        4.7913452379288577        4.8956726200729523        5.0000000000000000        0.0000000000000000       0.10774762371161652       0.21549524965386352       0.32324288160436088       0.43099052755795131       0.53873820537286077       0.64648595539909337       0.75423386902262557       0.86198215329990924       0.96973127728689812        1.0774823029640390        1.1852376319317370        1.2930026824874283        1.4007896202739825        1.5086254851245977        1.6165690468718430        1.7247413831622818        1.8333568446000685        1.9425940327925550        2.0512943410681888        2.1510240160417418        2.2420378466079041        2.3266083039368808        2.4069676172136112        2.4851200448948507        2.5629329368902862        2.6422575476432644        2.7250534324476150        2.8134969495392768        2.9098670007008143        3.0147715853018280        3.1204597133586893        3.2256297151183317        3.3303851612403617        3.4349161366504983        3.5393377720504224        3.6437082605736495        3.7480552422245741        3.8523915087891076        3.9567229106465107        4.0610521083499087        4.1653803084268120        4.2697080572377830        4.3740356020087638        4.4783630545622923        4.5826904654660998        4.6870178575910248        4.7913452413002080        4.8956726213394957        5.0000000000000000        0.0000000000000000       0.10774761949949341       0.21549523824479214       0.32324285491496807       0.43099046668172480       0.53873806718954309       0.64648564203005487       0.75423315847965522       0.86198054212649411       0.96972762340451513        1.0774740144415291        1.1852188221040636        1.2929599667425578        1.4006925179378653        1.5084044639098910        1.6160654309214793        1.7235952320791221        1.8307744265683208        1.9370007295970382        2.0407451333148527        2.1390691603131451        2.2314179935003620        2.3187409926045790        2.4025201655162367        2.4843639290914385        2.5658893195486114        2.6487052452906132        2.7344013770993740        2.8244518056592143        2.9198606241522573        3.0202763637775907        3.1230783254611025        3.2268231585820888        3.3309229213230460        3.4351580321004387        3.5394466802150868        3.6437573571420385        3.7480773984893903        3.8524015147116195        3.9567274314997110        4.0610541515409224        4.1653812320044210        4.2697084747621226        4.3740357907658991        4.4783631398830810        4.5826905039922075        4.6870178748941775        4.7913452488629087        4.8956726241791158        5.0000000000000000        0.0000000000000000       0.10774761612087144       0.21549522909419955       0.32324283351128918       0.43099041786812908       0.53873795640651945       0.64648539086693613       0.75423258924681880       0.86197925241968254       0.96972470272958722        1.0774674058252438        1.1852038910240505        1.2929263213782616        1.4006170560480158        1.5082366100578923        1.6156975173125692        1.7228097367700403        1.8291753396448294        1.9340195885496407        2.0360434564271652        2.1336951871895531        2.2264960302023948        2.3150101307354580        2.4003801955852988        2.4839888309157336        2.5672917884696891        2.6517404336898345        2.7387097107209306        2.8293498349883750        2.9242821320880394        3.0231731507942201        3.1246804454901107        3.2276332433358754        3.3313130067800141        3.4353408312878968        3.5395310349066831        3.6437959439433740        3.7480949612898358        3.8524094855840505        3.9567310431730287        4.0610557865001491        4.1653819717384577        4.2697088093512914        4.3740359420727293        4.4783632082857521        4.5826905348806415        4.6870178887668255        4.7913452549258597        4.8956726264554487        5.0000000000000000        0.0000000000000000       0.10774761612083075       0.21549522909411897       0.32324283351117045       0.43099041786797448       0.53873795640633237       0.64648539086672141       0.75423258924658276       0.86197925241943385       0.96972470272933797        1.0774674058250115        1.1852038910238594        1.2929263213781474        1.4006170560480311        1.5082366100581162        1.6156975173131216        1.7228097367711075        1.8291753396466979        1.9340195885527249        2.0360434564319201        2.1336951871960594        2.2264960302103156        2.3150101307443229        2.4003801955946868        2.4839888309253002        2.5672917884791295        2.6517404336988224        2.7387097107290681        2.8293498349952100        2.9242821320932082        3.0231731507977249        3.1246804454923351        3.2276332433372152        3.3313130067807641        3.4353408312882592        3.5395310349067945        3.6437959439433256        3.7480949612896879        3.8524094855838449        3.9567310431727947        4.0610557864999066        4.1653819717382188        4.2697088093510676        4.3740359420725277        4.4783632082855789        4.5826905348805003        4.6870178887667171        4.7913452549257860        4.8956726264554113        5.0000000000000000        0.0000000000000000       0.10774761949937769       0.21549523824456313       0.32324285491463040       0.43099046668128510       0.53873806718901107       0.64648564202944392       0.75423315847898309       0.86198054212578579       0.96972762340380447        1.0774740144408637        1.1852188221035118        1.2929599667422200        1.4006925179378875        1.5084044639104919        1.6160654309229880        1.7235952320820487        1.8307744265734682        1.9370007296056431        2.0407451333284592        2.1390691603318510        2.2314179935229648        2.3187409926296740        2.4025201655426662        2.4843639291183162        2.5658893195751662        2.6487052453160076        2.7344013771225382        2.8244518056788133        2.9198606241670402        3.0202763637873988        3.1230783254672532        3.2268231585857743        3.3309229213251013        3.4351580321014237        3.5394466802153755        3.6437573571418822        3.7480773984889586        3.8524015147110289        3.9567274314990404        4.0610541515402288        4.1653812320037433        4.2697084747614875        4.3740357907653298        4.4783631398825889        4.5826905039918033        4.6870178748938693        4.7913452488627000        4.8956726241790118        5.0000000000000000        0.0000000000000000       0.10774762371144501       0.21549524965352421       0.32324288160386033       0.43099052755729977       0.53873820537207218       0.64648595539818698       0.75423386902162759       0.86198215329885530       0.96973127728583786        1.0774823029630414        1.1852376319309006        1.2930026824868963        1.4007896202739640        1.5086254851254024        1.6165690468739324        1.7247413831663632        1.8333568446072670        1.9425940328047968        2.0512943410888114        2.1510240160700844        2.2420378466414612        2.3266083039735093        2.4069676172517975        2.4851200449335327        2.5629329369285863        2.6422575476802024        2.7250534324818307        2.8134969495688007        2.9098670007231640        3.0147715853158701        3.1204597133673331        3.2256297151234881        3.3303851612432243        3.4349161366518501        3.5393377720507848        3.6437082605733782        3.7480552422239102        3.8523915087882172        3.9567229106455093        4.0610521083488766        4.1653803084258056        4.2697080572368424        4.3740356020079165        4.4783630545615605        4.5826904654654994        4.6870178575905665        4.7913452412998971        4.8956726213393411        5.0000000000000000        0.0000000000000000       0.10774762558299605       0.21549525472516898       0.32324289347366536       0.43099055464183267       0.53873826687112980       0.64648609491053344       0.75423418550094379       0.86198287146839803       0.96973290820207958        1.0774860119198475        1.1852460891043344        1.2930220628293365        1.4008344494247846        1.5087310117573787        1.6168255809226764        1.7254014570598595        1.8352203782113354        1.9486245493982661        2.0715867254448668        2.1723507212025734        2.2597423737788143        2.3392324887019553        2.4139558550211744        2.4862643620217124        2.5582124873591736        2.6318276180428413        2.7093786042111558        2.7938540224405251        2.8904805676806720        3.0086613556540902        3.1185249481802084        3.2249305130489048        3.3301081032809563        3.4347998216720397        3.5392872769516708        3.6436859285804877        3.7480452654892620        3.8523870273366545        3.9567208916594163        4.0610511972834162        4.1653798969401388        4.2697078712935008        4.3740355179595278        4.4783630165697232        4.5826904483070381        4.6870178498811965        4.7913452379285060        4.8956726200727756        5.0000000000000000        0.0000000000000000       0.10774762370130966       0.21549524963339878       0.32324288157398601       0.43099052751801087       0.53873820532379280       0.64648595534142583       0.75423386895697331       0.86198215322697003       0.96973127720745078        1.0774823028789411        1.1852376318419282        1.2930026823939360        1.4007896201779348        1.5086254850272502        1.6165690467746221        1.7247413830668750        1.8333568445086144        2.0000000000000000        2.1164848328576067        2.2066363197303387        2.2855874011697845        2.3569393179410376        2.4235699846018255        2.4877960212721097        2.5516536737755260        2.6171415388627293        2.6864576117050425        2.7622663632090712        2.8478758926758347        3.0000000000000000        3.1204597132703578        3.2256297150254478        3.3303851611451076        3.4349161365545990        3.5393377719553158        3.6437082604805822        3.7480552421346460        3.8523915087033043        3.9567229105657229        4.0610521082749402        4.1653803083583840        4.2697080571765351        4.3740356019552582        4.4783630545170068        4.5826904654294287        4.6870178575632773        4.7913452412816042        4.8956726213301724        5.0000000000000000     
   0.0000000000000000        0.0000000000000000        0.0000000000000000        0.0000000000000000        0.0000000000000000        0.0000000000000000        0.0000000000000000        0.0000000000000000        0.0000000000000000        0.0000000000000000        0.0000000000000000        0.0000000000000000        0.0000000000000000        0.0000000000000000        0.0000000000000000        0.0000000000000000        0.0000000000000000        0.0000000000000000        0.0000000000000000        3.5783459065187054E-002   6.0452318171991447E-002   7.8158289672316042E-002   9.0069125567688674E-002   9.7131136648751407E-002   9.9926512980038074E-002   9.8686232671090487E-002   9.3304476871273773E-002   8.3328452200984088E-002   6.7933955938987073E-002   4.5992611224769116E-002   0.0000000000000000        0.0000000000000000        0.0000000000000000        0.0000000000000000        0.0000000000000000        0.0000000000000000        0.0000000000000000        0.0000000000000000        0.0000000000000000        0.0000000000000000        0.0000000000000000        0.0000000000000000        0.0000000000000000        0.0000000000000000        0.0000000000000000        0.0000000000000000        0.0000000000000000        0.0000000000000000        0.0000000000000000        0.0000000000000000       0.11111136639242929       0.11111132035286268       0.11111136639242898       0.11111152477725297       0.11111186523582751       0.11111253769881148       0.11111383846615143       0.11111634122439829       0.11112115157905400       0.11113040044868647       0.11114820452648340       0.11118255353810411       0.11124908007200300       0.11137880046353507       0.11163473617718271       0.11215014340903345       0.11322553227963171       0.11560940049299333       0.12146770544950258       0.13692665169232227       0.15287265959991861       0.16572347382288044       0.17493809943325339       0.18059887063459432       0.18287357821842096       0.18184499865570766       0.17746182786228665       0.16954381812296207       0.15784082645061848       0.14216945599311714       0.12401158619773990       0.11678404889991220       0.11381233524396221       0.11245806073385797       0.11180104783538088       0.11147005803952897       0.11129954926068962       0.11121055618210052       0.11116375236462282       0.11113902692165140       0.11112593089321762       0.11111898404507541       0.11111529621285074       0.11111333838488920       0.11111230048197555       0.11111175357691350       0.11111147181580602       0.11111133888911882       0.11111129993804066       0.11111133888911853       0.22222261331586174       0.22222254278783957       0.22222261331586118       0.22222285593587754       0.22222337741629053       0.22222440725721435       0.22222639873946398       0.22223022858797836       0.22223758343167979       0.22225170414969470       0.22227881890347359       0.22233090550673393       0.22243102868296472       0.22262368468251811       0.22299490917386630       0.22371130921287186       0.22509438376665733       0.22775025396962045       0.23271373290262540       0.24104098402820839       0.25034943663792103       0.25858638060706618       0.26484416841826941       0.26881918153863976       0.27043946143751518       0.26969388242519921       0.26657434437008981       0.26109409154544483       0.25339847199830251       0.24406402487873838       0.23482265984208447       0.22902974159726505       0.22583614402011473       0.22413423884231107       0.22323426398468488       0.22275854406047024       0.22250674739638521       0.22237328516563623       0.22230246850021981       0.22226486457476799       0.22224488735071513       0.22223427157790521       0.22222863015252253       0.22222563332863246       0.22222404403893323       0.22222320640788726       0.22222277481232405       0.22222257118384087       0.22222251151338179       0.22222257118384031       0.33333367723535595       0.33333361522271343       0.33333367723535517       0.33333389055235996       0.33333434900288661       0.33333525420112298       0.33333700408875211       0.33334036747968859       0.33334682054534442       0.33335919049068335       0.33338288052422449       0.33342818550376691       0.33351462112843455       0.33367886098923510       0.33398877441810221       0.33456655529908680       0.33562114326179843       0.33747420763692382       0.34050965416249585       0.34486357287965258       0.34975516421386926       0.35427208925002346       0.35783029184422643       0.36014406513762848       0.36109704477396337       0.36065316064613812       0.35882174568611891       0.35567248126968964       0.35140599098220393       0.34648923872812531       0.34179380992593283       0.33835617361143899       0.33618012872610253       0.33490450635425961       0.33418726638117108       0.33379330202597923       0.33357978864349941       0.33346497371067729       0.33340351647844318       0.33337070975553046       0.33335322561081304       0.33334391689810983       0.33333896440296984       0.33333633174543831       0.33333493500915201       0.33333419868310288       0.33333381923144467       0.33333364019049705       0.33333358772321736       0.33333364019049633       0.44444458025693229       0.44444455576844771       0.44444458025693151       0.44444466449227693       0.44444484551479058       0.44444520289581879       0.44444589362515202       0.44444722078321208       0.44444976559123467       0.44445463893976284       0.44446395666604055       0.44448172737742858       0.44451547961386118       0.44457914682404748       0.44469788302777269       0.44491519198038543       0.44530075873405578       0.44595083982126055       0.44695922777409486       0.44832831410820034       0.44985864119859004       0.45129323960549339       0.45244174782903962       0.45319719102458506       0.45350997936067544       0.45336340609391051       0.45276307656146592       0.45174201808634457       0.45038186116592843       0.44884495972701943       0.44738565225606364       0.44625871992891364       0.44550398161828031       0.44504168642967368       0.44477365111475009       0.44462339286258590       0.44454088079172244       0.44449613993014875       0.44447206671421263       0.44445917481628755       0.44445229064041392       0.44444862105422273       0.44444666731442983       0.44444562828607670       0.44444507689215784       0.44444478616462441       0.44444463632984338       0.44444456562798468       0.44444454490859486       0.44444456562798401       0.55555541974343137       0.55555544423189707       0.55555541974343037       0.55555533550813996       0.55555515448572457       0.55555479710484779       0.55555410637573466       0.55555277921798629       0.55555023441039930       0.55554536106247498       0.55553604333703110       0.55551827262678910       0.55548452039192486       0.55542085318386814       0.55530211698299570       0.55508480803411264       0.55469924128510828       0.55404916020327688       0.55304077225568893       0.55167168592503601       0.55014135883443116       0.54870676042342614       0.54755825219277521       0.54680280898824396       0.54649002064228624       0.54663659389916408       0.54723692342253416       0.54825798189030961       0.54961813880611421       0.55115504024395934       0.55261434771730322       0.55374128004873568       0.55449601836401152       0.55495831355677794       0.55522634887509459       0.55537660712989156       0.55545911920274182       0.55550386006579155       0.55552793328281513       0.55554082518153647       0.55554770935799147       0.55555137894460560       0.55555333268470486       0.55555437171327804       0.55555492310735299       0.55555521383499362       0.55555536366984437       0.55555543437174193       0.55555545509114390       0.55555543437174137       0.66666632276496385       0.66666638477758988       0.66666632276496329       0.66666610944800653       0.66666565099756592       0.66666474579946233       0.66666299591202594       0.66665963252136218       0.66665317945608626       0.66664080951127269       0.66661711947845381       0.66657181449989966       0.66648537887657877       0.66632113901760082       0.66601122559117720       0.66543344471341781       0.66437885675484498       0.66252579238473730       0.65949034586449728       0.65513642715123932       0.65024483581675951       0.64572791077644098       0.64216970817546459       0.63985593487383052       0.63890295522863594       0.63934683934760639       0.64117825429938125       0.64432751870891791       0.64859400899185771       0.65351076124487095       0.65820619004984682       0.66164382636876740       0.66381987125849140       0.66509549363405096       0.66581273361008286       0.66620669796753107       0.66642021135170992       0.66653502628579731       0.66659648351896739       0.66662929024256889       0.66664677438779130       0.66665608310086311       0.66666103559627066       0.66666366825399503       0.66666506499041789       0.66666580131656117       0.66666618076828066       0.66666635980926248       0.66666641227655288       0.66666635980926214       0.77777738668437546       0.77777745721238556       0.77777738668437502       0.77777714406439447       0.77777662258404512       0.77777559274321906       0.77777360126111150       0.77776977141279735       0.77776241656937395       0.77774829585174132       0.77772118109848354       0.77766909449592991       0.77756897132065117       0.77737631532237272       0.77700509083272307       0.77628869079597607       0.77490561624519971       0.77224974604624619       0.76728626711834202       0.75895901599747195       0.74965056338704072       0.74141361941367634       0.73515583159666675       0.73118081846986294       0.72956053856436309       0.73030611757009412       0.73342565561887207       0.73890590843780823       0.74660152798064516       0.75593597509886556       0.76517734013897698       0.77097025838815902       0.77416385596889037       0.77586576114942551       0.77676573600911913       0.77724145593490013       0.77749325260016888       0.77762671483180856       0.77769753149789123       0.77773513542383865       0.77775511264825758       0.77776572842133662       0.77777136984691575       0.77777436667094779       0.77777595596074789       0.77777679359186358       0.77777722518747205       0.77777742881598066       0.77777748848644779       0.77777742881598044       0.88888863360769699       0.88888867964725715       0.88888863360769677       0.88888847522289149       0.88888813476435069       0.88888746230141868       0.88888616153415367       0.88888365877601228       0.88887884842150178       0.88886959955206735       0.88885179547453785       0.88881744646327421       0.88875091992984689       0.88862119953893048       0.88836526382607994       0.88784985659526117       0.88677446772603707       0.88439059951466215       0.87853229456148829       0.86307334832347871       0.84712734041386262       0.83427652618741222       0.82506190057363471       0.81940112936917386       0.81712642178241879       0.81815500134225405       0.82253817213271374       0.83045618186890391       0.84215917353808090       0.85783054399352299       0.87598841379226355       0.88321595109304751       0.88618766475080368       0.88754193926215652       0.88819895216157074       0.88852994195814972       0.88870045073755510       0.88878944381658176       0.88883624763439384       0.88886097307761835       0.88887406910624123       0.88888101595452373       0.88888470378685169       0.88888666161488794       0.88888769951785485       0.88888824642295394       0.88888852818408548       0.88888866111078613       0.88888870006186860       0.88888866111078602        1.0000000000000000        1.0000000000000000        1.0000000000000000        1.0000000000000000        1.0000000000000000        1.0000000000000000        1.0000000000000000        1.0000000000000000        1.0000000000000000        1.0000000000000000        1.0000000000000000        1.0000000000000000        1.0000000000000000        1.0000000000000000        1.0000000000000000        1.0000000000000000        1.0000000000000000        1.0000000000000000        1.0000000000000000       0.96421654092917930       0.93954768182172033       0.92184171032204765       0.90993087442812037       0.90286886334888761       0.90007348701957834       0.90131376733051372       0.90669552313220514       0.91667154780406002       0.93206604406696103       0.95400738878091840        1.0000000000000000        1.0000000000000000        1.0000000000000000        1.0000000000000000        1.0000000000000000        1.0000000000000000        1.0000000000000000        1.0000000000000000        1.0000000000000000        1.0000000000000000        1.0000000000000000        1.0000000000000000        1.0000000000000000        1.0000000000000000        1.0000000000000000        1.0000000000000000        1.0000000000000000        1.0000000000000000        1.0000000000000000        1.0000000000000000     