 VARIABLES = "X", "Y", "RHO", "RHO_U", "RHO_V", "RHO_E"
 ZONE I=           7 , J=           6 , K=           1 , DATAPACKING=BLOCK, VARLOCATION=([3, 4, 5, 6]=CELLCENTERED)
   0.0000000000000000       0.83333335816860199        2.0000000000000000        2.5000000000000000        3.0000000000000000        4.1666665673255920        5.0000000000000000        0.0000000000000000       0.83333335816860199        1.6666667143107845        2.5000000026129090        3.3333334246397963        4.1666665752224086        5.0000000000000000        0.0000000000000000       0.83333335816860199        1.6666667133523212        2.5000000038558765        3.3333334208627496        4.1666665788529205        5.0000000000000000        0.0000000000000000       0.83333335816860199        1.6666667128947830        2.5000000044471307        3.3333334191019848        4.1666665805213636        5.0000000000000000        0.0000000000000000       0.83333335816860199        1.6666667126741304        2.5000000047283244        3.3333334182981114        4.1666665812882595        5.0000000000000000        0.0000000000000000       0.83333335816860199        2.0000000000000000        2.5000000000000000        3.0000000000000000        4.1666665673255920        5.0000000000000000     
   0.0000000000000000        0.0000000000000000        0.0000000000000000       0.10000000149011612        0.0000000000000000        0.0000000000000000        0.0000000000000000       0.20000000298023224       0.20000000298023221       0.20179508022961032       0.25789871220358546       0.20173792916758373       0.20004732926734259       0.20000000298023224       0.40000000596046448       0.40000001300526455       0.40144625632114150       0.41830136157852799       0.40137295425836023       0.40005977478911775       0.40000000596046448       0.60000002384185791       0.60000001308281736       0.60008590182988930       0.57989347577397932       0.60004838664064819       0.60002958356360947       0.60000002384185791       0.80000001192092896       0.80000000683439310       0.79824575528091291       0.74205064765592399       0.79828385189961570       0.79996725327140350       0.80000001192092896        1.0000000000000000        1.0000000000000000        1.0000000000000000       0.89999999850988388        1.0000000000000000        1.0000000000000000        1.0000000000000000     
  0.95661533184695624       0.99435693958047378       0.98846457807460641        1.0024394749122323       0.99340278112341940       0.99796891107433328       0.95669326662396559       0.99651560802770422       0.99434590025335889        1.0012485952462842       0.99660054364512718       0.99781504081914618       0.95669484375159330       0.99676856588880536       0.99667242391563071       0.99844918875174871       0.99683749569348401       0.99781586363534580       0.95669692605862744       0.99703197260555976       0.99865346542780342       0.99541368071301572       0.99704006442419846       0.99779010610921937       0.95656929070420327       0.99656684195023459       0.99484618449282969       0.98835524823354204       0.99555781861473447       0.99832149242773649     
  0.27898436555989625       0.27476371124353294       0.28679288106713346       0.29420013134044221       0.27440648195936473       0.26995222243671690       0.27525197320078171       0.26637302041794259       0.29291962201517963       0.29795099315842744       0.26619427818667801       0.26473615858190996       0.27516449933284992       0.26635927680668570       0.29328710921818435       0.29805353590694422       0.26630477087250726       0.26506788142652021       0.27504802417010626       0.26627332078533011       0.29304774395555588       0.29764864031474431       0.26628478941101547       0.26525854352316341       0.28082258480894817       0.27098607082250992       0.29331713826156219       0.29860801639309842       0.27064872010578028       0.26775460996814465     
   0.0000000000000000       -7.2075242786148269E-002  -6.6068353590538295E-002 -0.15134778844702532       -7.2649658177119034E-002  -7.2983588971787292E-002   0.0000000000000000       -8.6224067011803532E-002  -8.1827959772250880E-002 -0.10983183053197131       -8.7146276087523358E-002  -8.7252476015578256E-002   0.0000000000000000       -8.6676495339320925E-002  -9.6376115671315474E-002  -9.5261044938507344E-002  -8.7092556805474217E-002  -8.7178035698394440E-002   0.0000000000000000       -8.7249225599446298E-002 -0.11031288335372755       -8.1345021855454738E-002  -8.6625739171971000E-002  -8.6690904973921248E-002   0.0000000000000000      -0.10118885981886758      -0.10840597869095923       -2.2189372766837748E-002 -0.10086659955779284      -0.10114660577600758     
   1.7543265170993814        1.8172598899174415        1.8149258183115475        1.8459572919542626        1.8148427370028959        1.8248948006249375        1.7559269314134895        1.8218137004571884        1.8268486196002189        1.8444926888421684        1.8220334064484875        1.8246490029877778        1.7559641983318766        1.8224555964124622        1.8327932785813070        1.8373371802286722        1.8226402251815377        1.8247305307401389        1.7560138036982620        1.8231245194951049        1.8378545615850854        1.8295759929803113        1.8231580391514175        1.8247397642158747        1.7535309054532926        1.8232732737083766        1.8283849392282425        1.8124479987685940        1.8206963711076976        1.8267452727062232     
