 VARIABLES = "X", "Y", "RHO", "RHO_U", "RHO_V", "RHO_E"
 ZONE I=           7 , J=           3 , K=           1 , DATAPACKING=BLOCK, VARLOCATION=([3, 4, 5, 6]=CELLCENTERED)
   0.0000000000000000       0.83333335816860199        2.0000000000000000        2.5000000000000000        3.0000000000000000        4.1666665673255920        5.0000000000000000        0.0000000000000000       0.83333335816860199        1.6666667064761413        2.5000000130283988        3.3333333949545012        4.1666666017775045        5.0000000000000000        0.0000000000000000       0.83333335816860199        2.0000000000000000        2.5000000000000000        3.0000000000000000        4.1666665673255920        5.0000000000000000     
   0.0000000000000000        0.0000000000000000        0.0000000000000000       0.10000000149011612        0.0000000000000000        0.0000000000000000        0.0000000000000000       0.50000000000000000       0.50000000000000000       0.50000000000000000       0.50000000000000000       0.50000000000000000       0.50000000000000000       0.50000000000000000        1.0000000000000000        1.0000000000000000        1.0000000000000000       0.89999999850988388        1.0000000000000000        1.0000000000000000        1.0000000000000000     
   1.0000000000000000        1.0000000000000000        1.0000000000000000        1.0000000000000000        1.0000000000000000        1.0000000000000000        1.0000000000000000        1.0000000000000000        1.0000000000000000        1.0000000000000000        1.0000000000000000        1.0000000000000000     
  0.69999998807907104       0.69999998807907104       0.69659331670590585       0.87074164912614782       0.69999998807907104       0.69999998807907104       0.69999998807907104       0.69999998807907104       0.69659331670590585       0.87074164912614782       0.69999998807907104       0.69999998807907104     
   0.0000000000000000        0.0000000000000000        6.8976332400071241E-002  -8.6220415821285132E-002   0.0000000000000000        0.0000000000000000        0.0000000000000000        0.0000000000000000       -6.8976332400071241E-002   8.6220415821285132E-002   0.0000000000000000        0.0000000000000000     
   2.0307142603397370        2.0307142603397370        2.0307142603397370        2.1685267584980465        2.0307142603397370        2.0307142603397370        2.0307142603397370        2.0307142603397370        2.0307142603397370        2.1685267584980465        2.0307142603397370        2.0307142603397370     
