 VARIABLES = "X", "Y", "RHO", "RHO_U", "RHO_V", "RHO_E"
 ZONE I=          17 , J=           6 , K=           1 , DATAPACKING=BLOCK, VARLOCATION=([3, 4, 5, 6]=CELLCENTERED)
   0.0000000000000000       0.32113177656254766       0.64226348044500503       0.96339449022734769        1.2845188328128085        1.6055787328292781        2.0000000000000000        2.3104957414752714        2.5000000206235700        2.6895043052326231        3.0000000000000000        3.3944213471989828        3.7154812444884633        4.0366055762232920        4.3577365681683702        4.6788682490990077        5.0000000000000000        0.0000000000000000       0.32113180389325946       0.64226374812661635       0.96339707178046963        1.2845437045530268        1.6058185516635668        1.9283313901854091        2.2595222197560987        2.5000000257099733        2.7404778369664520        3.0716686826377808        3.3941815270570030        3.7154563715227873        4.0366029936216510        4.3577362997206182        4.6788682213641062        5.0000000000000000        0.0000000000000000       0.32113177625398914       0.64226347986596699       0.96339448944240103        1.2845188319060417        1.6055787318954409        1.9260065332682961        2.2400242126799355        2.5000000282818595        2.7599758481999777        3.0739935394117834        3.3944213462579071        3.7154812435850202        4.0366055754528496        4.3577365676100568        4.6788682488074560        5.0000000000000000        0.0000000000000000       0.32113177625691491       0.64226347987143806       0.96339448944966966        1.2845188319136587        1.6055787318997072        1.9260065332578906        2.2400242126256424        2.5000000282169097        2.7599758481458845        3.0739935394021383        3.3944213462628552        3.7154812435931315        4.0366055754604240        4.3577365676156612        4.6788682488103976        5.0000000000000000        0.0000000000000000       0.32113180389971901       0.64226374813870157       0.96339707179656731        1.2845437045701189        1.6058185516742645        1.9283313901667862        2.2595222196331131        2.5000000255738555        2.7404778368437022        3.0716686826207669        3.3941815270691640        3.7154563715409603        4.0366029936384242        4.3577362997329976        4.6788682213706023        5.0000000000000000        0.0000000000000000       0.32113177656553954       0.64226348045060011       0.96339449023478174        1.2845188328205990        1.6055787328336406        2.0000000000000000        2.3104957414336180        2.5000000205762078        2.6895043051911207        3.0000000000000000        3.3944213472040543        3.7154812444967789        4.0366055762310555        4.3577365681741140        4.6788682491020239        5.0000000000000000     
   0.0000000000000000        0.0000000000000000        0.0000000000000000        0.0000000000000000        0.0000000000000000        0.0000000000000000        0.0000000000000000        8.2795498184037641E-002  0.10000000149011591        8.2795489955095114E-002   0.0000000000000000        0.0000000000000000        0.0000000000000000        0.0000000000000000        0.0000000000000000        0.0000000000000000        0.0000000000000000       0.20000892885520907       0.20000320390187223       0.20000892885522606       0.20004666407436289       0.20025288615890946       0.20138594424240797       0.20777783083486170       0.24229482971820979       0.25354740998648023       0.24229482581469017       0.20777782974178410       0.20138594404514629       0.20025288613355202       0.20004666407403093       0.20000892885671476       0.20000320390314258       0.20000892885673352       0.40000544195856830       0.40000196661348808       0.40000544195859389       0.40002798696496589       0.40014665586877168       0.40074674532879762       0.40352665848553365       0.41318182097331091       0.41686303650245488       0.41318181989896063       0.40352665806469179       0.40074674524538856       0.40014665586181974       0.40002798696764746       0.40000544196074228       0.40000196661511489       0.40000544196076815       0.59999455803932955       0.59999803338508573       0.59999455803935220       0.59997201303051195       0.59985334412026636       0.59925325464484791       0.59647334145649222       0.58681817893900867       0.58313696349929867       0.58681818019118570       0.59647334199332847       0.59925325478030989       0.59985334414860125       0.59997201303655245       0.59999455804113477       0.59999803338618996       0.59999455804115465       0.79999107114349721       0.79999679609724528       0.79999107114351020       0.79995333592289997       0.79974711383465169       0.79861405574264577       0.79222216913146992       0.75770517022075945       0.74645259001456321       0.75770517424804551       0.79222217029199438       0.79861405596946566       0.79974711387258601       0.79995333592851758       0.79999107114444246       0.79999679609766572       0.79999107114445211        1.0000000000000000        1.0000000000000000        1.0000000000000000        1.0000000000000000        1.0000000000000000        1.0000000000000000        1.0000000000000000       0.91720450182330082       0.89999999850988410       0.91720451003759307        1.0000000000000000        1.0000000000000000        1.0000000000000000        1.0000000000000000        1.0000000000000000        1.0000000000000000        1.0000000000000000     
   1.0000000000000000        1.0000000000000000        1.0000000000000000        1.0000000000000000        1.0000000000000000        1.0000000000000000        1.0000000000000000        1.0000000000000000        1.0000000000000000        1.0000000000000000        1.0000000000000000        1.0000000000000000        1.0000000000000000        1.0000000000000000        1.0000000000000000        1.0000000000000000        1.0000000000000000        1.0000000000000000        1.0000000000000000        1.0000000000000000        1.0000000000000000        1.0000000000000000        1.0000000000000000        1.0000000000000000        1.0000000000000000        1.0000000000000000        1.0000000000000000        1.0000000000000000        1.0000000000000000        1.0000000000000000        1.0000000000000000        1.0000000000000000        1.0000000000000000        1.0000000000000000        1.0000000000000000        1.0000000000000000        1.0000000000000000        1.0000000000000000        1.0000000000000000        1.0000000000000000        1.0000000000000000        1.0000000000000000        1.0000000000000000        1.0000000000000000        1.0000000000000000        1.0000000000000000        1.0000000000000000        1.0000000000000000        1.0000000000000000        1.0000000000000000        1.0000000000000000        1.0000000000000000        1.0000000000000000        1.0000000000000000        1.0000000000000000        1.0000000000000000        1.0000000000000000        1.0000000000000000        1.0000000000000000        1.0000000000000000        1.0000000000000000        1.0000000000000000        1.0000000000000000        1.0000000000000000        1.0000000000000000        1.0000000000000000        1.0000000000000000        1.0000000000000000        1.0000000000000000        1.0000000000000000        1.0000000000000000        1.0000000000000000        1.0000000000000000        1.0000000000000000        1.0000000000000000        1.0000000000000000        1.0000000000000000        1.0000000000000000        1.0000000000000000        1.0000000000000000     
  0.30000001190901082       0.30000001190901082       0.30000001140313820       0.29999999645789316       0.29999954549953012       0.29998528614687114       0.32166567643677746       0.36624051276566610       0.36624050838048156       0.32166567357418113       0.29998528615153602       0.29999954549966396       0.29999999645789588       0.30000001140313820       0.30000001190901082       0.30000001190901082       0.30000001189014897       0.30000001189014897       0.30000001059959497       0.29999997353944236       0.29999892011044660       0.29996957051447942       0.32634057163267044       0.36693491382800314       0.36693491002982953       0.32634056889041374       0.29996957052375306       0.29999892011074147       0.29999997353944796       0.30000001059959486       0.30000001189014897       0.30000001189014897       0.30000001192092896       0.30000001192092896       0.30000001192092896       0.30000001192092896       0.30000001192092896       0.30000001192092896       0.32708083238335878       0.36710518823619065       0.36710518454286989       0.32708082945147887       0.30000001192092896       0.30000001192092896       0.30000001192092896       0.30000001192092896       0.30000001192092896       0.30000001192092896       0.30000001189014897       0.30000001189014897       0.30000001059959480       0.29999997353943997       0.29999892011041646       0.29996957051413986       0.32634057163032792       0.36693491383134796       0.36693491002651624       0.32634056889289859       0.29996957052410023       0.29999892011077145       0.29999997353945029       0.30000001059959502       0.30000001189014897       0.30000001189014897       0.30000001190901082       0.30000001190901082       0.30000001140313814       0.29999999645789260       0.29999954549952307       0.29998528614678222       0.32166567643305671       0.36624051276835912       0.36624050837780814       0.32166567357805448       0.29998528615162701       0.29999954549967095       0.29999999645789643       0.30000001140313820       0.30000001190901082       0.30000001190901082     
  -2.6741139436698957E-006   2.6741127829711355E-006   1.7625959840395741E-005   9.6321449366848109E-005   5.2901099504884747E-004   2.9724144962212816E-003   5.9271101854624107E-002   2.5181462210740531E-002  -2.5181472146420955E-002  -5.9271101210756752E-002  -2.9724140254265884E-003  -5.2901091914441564E-004  -9.6321440879399803E-005  -1.7625959953506078E-005  -2.6741130730725524E-006   2.6741142726825515E-006  -4.2974406314616518E-006   4.2974398499229379E-006   2.8156712006200505E-005   1.5175273117057198E-004   8.0937329051256849E-004   4.2736305310929687E-003   2.1993231209913630E-002   1.1179814129264398E-002  -1.1179817514408436E-002  -2.1993228297559085E-002  -4.2736298801658926E-003  -8.0937318121239454E-004  -1.5175272001223428E-004  -2.8156712939584372E-005  -4.2974404969608344E-006   4.2974413548269604E-006   0.0000000000000000        0.0000000000000000        0.0000000000000000        0.0000000000000000        0.0000000000000000        0.0000000000000000        0.0000000000000000        0.0000000000000000        0.0000000000000000        0.0000000000000000        0.0000000000000000        0.0000000000000000        0.0000000000000000        0.0000000000000000        0.0000000000000000        0.0000000000000000        4.2974411392153979E-006  -4.2974403211513739E-006  -2.8156713847058707E-005  -1.5175273590727515E-004  -8.0937330168936094E-004  -4.2736305549252980E-003  -2.1993231244672742E-002  -1.1179814019482155E-002   1.1179817623154885E-002   2.1993228260687815E-002   4.2736298557999874E-003   8.0937317010579908E-004   1.5175271543024863E-004   2.8156711205010275E-005   4.2974400667679811E-006  -4.2974408899992635E-006   2.6741141356992093E-006  -2.6741129610055780E-006  -1.7625960528396565E-005  -9.6321451095528296E-005  -5.2901099903134865E-004  -2.9724145051951974E-003  -5.9271101874816788E-002  -2.5181462171572116E-002   2.5181472185303134E-002   5.9271101189735755E-002   2.9724140162474067E-003   5.2901091517818519E-004   9.6321439203241499E-005   1.7625959303875172E-005   2.6741129101439642E-006  -2.6741140964832707E-006
   1.8307142722606660        1.8307142722606660        1.8307142722606660        1.8307142722606660        1.8307142722606660        1.8307142722606660        1.8392052041406826        1.8530973782993516        1.8530973769435144        1.8392052031817210        1.8307142722606660        1.8307142722606660        1.8307142722606660        1.8307142722606660        1.8307142722606660        1.8307142722606660        1.8307142722606660        1.8307142722606660        1.8307142722606660        1.8307142722606660        1.8307142722606660        1.8307142722606660        1.8392052041406826        1.8530973782993516        1.8530973769435144        1.8392052031817210        1.8307142722606660        1.8307142722606660        1.8307142722606660        1.8307142722606660        1.8307142722606660        1.8307142722606660        1.8307142722606660        1.8307142722606660        1.8307142722606660        1.8307142722606660        1.8307142722606660        1.8307142722606660        1.8392052041406826        1.8530973782993516        1.8530973769435144        1.8392052031817210        1.8307142722606660        1.8307142722606660        1.8307142722606660        1.8307142722606660        1.8307142722606660        1.8307142722606660        1.8307142722606660        1.8307142722606660        1.8307142722606660        1.8307142722606660        1.8307142722606660        1.8307142722606660        1.8392052041406826        1.8530973782993516        1.8530973769435144        1.8392052031817210        1.8307142722606660        1.8307142722606660        1.8307142722606660        1.8307142722606660        1.8307142722606660        1.8307142722606660        1.8307142722606660        1.8307142722606660        1.8307142722606660        1.8307142722606660        1.8307142722606660        1.8307142722606660        1.8392052041406826        1.8530973782993516        1.8530973769435144        1.8392052031817210        1.8307142722606660        1.8307142722606660        1.8307142722606660        1.8307142722606660        1.8307142722606660        1.8307142722606660     
