  VARIABLES = "X", "Y", "U", "V"
  ZONE I=          54 , J=          14 , DATAPACKING=BLOCK, VARLOCATION=([3,4]=CELLCENTERED)
 -0.20408163265306120      -0.10204081632653060        0.0000000000000000       0.10774762370148196       0.21549524963373970       0.32324288157448877       0.43099052751866551       0.53873820532458494       0.64648595534233655       0.75423386895797595       0.86198215322802862       0.96973127720851604        1.0774823028799434        1.1852376318427686        1.2930026823944705        1.4007896201779533        1.5086254850264420        1.6165690467725227        1.7247413830627747        1.8333568445013824        2.0000000000000000        2.1164848328384025        2.2066363197052112        2.2855874011410240        2.3569393179103320        2.4235699845702241        2.4877960212402601        2.5516536737439197        2.6171415388319481        2.6864576116760004        2.7622663631832700        2.8478758926554466        3.0000000000000000        3.1204597132616740        3.2256297150202666        3.3303851611422308        3.4349161365532410        3.5393377719549521        3.6437082604808557        3.7480552421353122        3.8523915087041982        3.9567229105667283        4.0610521082759776        4.1653803083593965        4.2697080571774828        4.3740356019561082        4.4783630545177413        4.5826904654300318        4.6870178575637382        4.7913452412819133        4.8956726213303288        5.0000000000000000        5.1020408163265305        5.2040816326530610      -0.20408163265306120      -0.10204081632653060        0.0000000000000000       0.10774762370148196       0.21549524963373970       0.32324288157448877       0.43099052751866551       0.53873820532458494       0.64648595534233655       0.75423386895797595       0.86198215322802862       0.96973127720851604        1.0774823028799434        1.1852376318427686        1.2930026823944705        1.4007896201779533        1.5086254850264420        1.6165690467725227        1.7247413830627747        1.8333568445013824        2.0000000000000000        2.1164848328384025        2.2066363197052112        2.2855874011410240        2.3569393179103320        2.4235699845702241        2.4877960212402601        2.5516536737439197        2.6171415388319481        2.6864576116760004        2.7622663631832700        2.8478758926554466        3.0000000000000000        3.1204597132616740        3.2256297150202666        3.3303851611422308        3.4349161365532410        3.5393377719549521        3.6437082604808557        3.7480552421353122        3.8523915087041982        3.9567229105667283        4.0610521082759776        4.1653803083593965        4.2697080571774828        4.3740356019561082        4.4783630545177413        4.5826904654300318        4.6870178575637382        4.7913452412819133        4.8956726213303288        5.0000000000000000        5.1020408163265305        5.2040816326530610      -0.20408163265306120      -0.10204081632653060        0.0000000000000000       0.10774762370148196       0.21549524963373970       0.32324288157448877       0.43099052751866551       0.53873820532458494       0.64648595534233655       0.75423386895797595       0.86198215322802862       0.96973127720851604        1.0774823028799434        1.1852376318427686        1.2930026823944705        1.4007896201779533        1.5086254850264420        1.6165690467725227        1.7247413830627747        1.8333568445013824        2.0000000000000000        2.1164848328384025        2.2066363197052112        2.2855874011410240        2.3569393179103320        2.4235699845702241        2.4877960212402601        2.5516536737439197        2.6171415388319481        2.6864576116760004        2.7622663631832700        2.8478758926554466        3.0000000000000000        3.1204597132616740        3.2256297150202666        3.3303851611422308        3.4349161365532410        3.5393377719549521        3.6437082604808557        3.7480552421353122        3.8523915087041982        3.9567229105667283        4.0610521082759776        4.1653803083593965        4.2697080571774828        4.3740356019561082        4.4783630545177413        4.5826904654300318        4.6870178575637382        4.7913452412819133        4.8956726213303288        5.0000000000000000        5.1020408163265305        5.2040816326530610      -0.20408163265306120      -0.10204081632653060        0.0000000000000000       0.10774762558319084       0.21549525472555442       0.32324289347423396       0.43099055464257313       0.53873826687202608       0.64648609491156439       0.75423418550207988       0.86198287146959907       0.96973290820329117        1.0774860119209921        1.1852460891053027        1.2930220628299698        1.4008344494248524        1.5087310117565407        1.6168255809204295        1.7254014570554470        1.8352203782035832        1.9486245493851135        2.0715867254200457        2.1723507211698991        2.2597423737415472        2.3392324886621578        2.4139558549801707        2.4862643619803566        2.5582124873181344        2.6318276180028843        2.7093786041734225        2.7938540224068240        2.8904805676540195        3.0086613556389086        3.1185249481708865        3.2249305130433270        3.3301081032778650        3.4347998216706013        3.5392872769513173        3.6436859285808332        3.7480452654900391        3.8523870273376786        3.9567208916605612        4.0610511972845948        4.1653798969412863        4.2697078712945720        4.3740355179604915        4.4783630165705546        4.5826904483077211        4.6870178498817179        4.7913452379288577        4.8956726200729523        5.0000000000000000        5.1020408163265305        5.2040816326530610      -0.20408163265306120      -0.10204081632653060        0.0000000000000000       0.10774762371161652       0.21549524965386352       0.32324288160436088       0.43099052755795131       0.53873820537286077       0.64648595539909337       0.75423386902262557       0.86198215329990924       0.96973127728689812        1.0774823029640390        1.1852376319317370        1.2930026824874283        1.4007896202739825        1.5086254851245977        1.6165690468718430        1.7247413831622818        1.8333568446000685        1.9425940327925550        2.0512943410681888        2.1510240160417418        2.2420378466079041        2.3266083039368808        2.4069676172136112        2.4851200448948507        2.5629329368902862        2.6422575476432644        2.7250534324476150        2.8134969495392768        2.9098670007008143        3.0147715853018280        3.1204597133586893        3.2256297151183317        3.3303851612403617        3.4349161366504983        3.5393377720504224        3.6437082605736495        3.7480552422245741        3.8523915087891076        3.9567229106465107        4.0610521083499087        4.1653803084268120        4.2697080572377830        4.3740356020087638        4.4783630545622923        4.5826904654660998        4.6870178575910248        4.7913452413002080        4.8956726213394957        5.0000000000000000        5.1020408163265305        5.2040816326530610      -0.20408163265306120      -0.10204081632653060        0.0000000000000000       0.10774761949949341       0.21549523824479214       0.32324285491496807       0.43099046668172480       0.53873806718954309       0.64648564203005487       0.75423315847965522       0.86198054212649411       0.96972762340451513        1.0774740144415291        1.1852188221040636        1.2929599667425578        1.4006925179378653        1.5084044639098910        1.6160654309214793        1.7235952320791221        1.8307744265683208        1.9370007295970382        2.0407451333148527        2.1390691603131451        2.2314179935003620        2.3187409926045790        2.4025201655162367        2.4843639290914385        2.5658893195486114        2.6487052452906132        2.7344013770993740        2.8244518056592143        2.9198606241522573        3.0202763637775907        3.1230783254611025        3.2268231585820888        3.3309229213230460        3.4351580321004387        3.5394466802150868        3.6437573571420385        3.7480773984893903        3.8524015147116195        3.9567274314997110        4.0610541515409224        4.1653812320044210        4.2697084747621226        4.3740357907658991        4.4783631398830810        4.5826905039922075        4.6870178748941775        4.7913452488629087        4.8956726241791158        5.0000000000000000        5.1020408163265305        5.2040816326530610      -0.20408163265306120      -0.10204081632653060        0.0000000000000000       0.10774761612087144       0.21549522909419955       0.32324283351128918       0.43099041786812908       0.53873795640651945       0.64648539086693613       0.75423258924681880       0.86197925241968254       0.96972470272958722        1.0774674058252438        1.1852038910240505        1.2929263213782616        1.4006170560480158        1.5082366100578923        1.6156975173125692        1.7228097367700403        1.8291753396448294        1.9340195885496407        2.0360434564271652        2.1336951871895531        2.2264960302023948        2.3150101307354580        2.4003801955852988        2.4839888309157336        2.5672917884696891        2.6517404336898345        2.7387097107209306        2.8293498349883750        2.9242821320880394        3.0231731507942201        3.1246804454901107        3.2276332433358754        3.3313130067800141        3.4353408312878968        3.5395310349066831        3.6437959439433740        3.7480949612898358        3.8524094855840505        3.9567310431730287        4.0610557865001491        4.1653819717384577        4.2697088093512914        4.3740359420727293        4.4783632082857521        4.5826905348806415        4.6870178887668255        4.7913452549258597        4.8956726264554487        5.0000000000000000        5.1020408163265305        5.2040816326530610      -0.20408163265306120      -0.10204081632653060        0.0000000000000000       0.10774761612083075       0.21549522909411897       0.32324283351117045       0.43099041786797448       0.53873795640633237       0.64648539086672141       0.75423258924658276       0.86197925241943385       0.96972470272933797        1.0774674058250115        1.1852038910238594        1.2929263213781474        1.4006170560480311        1.5082366100581162        1.6156975173131216        1.7228097367711075        1.8291753396466979        1.9340195885527249        2.0360434564319201        2.1336951871960594        2.2264960302103156        2.3150101307443229        2.4003801955946868        2.4839888309253002        2.5672917884791295        2.6517404336988224        2.7387097107290681        2.8293498349952100        2.9242821320932082        3.0231731507977249        3.1246804454923351        3.2276332433372152        3.3313130067807641        3.4353408312882592        3.5395310349067945        3.6437959439433256        3.7480949612896879        3.8524094855838449        3.9567310431727947        4.0610557864999066        4.1653819717382188        4.2697088093510676        4.3740359420725277        4.4783632082855789        4.5826905348805003        4.6870178887667171        4.7913452549257860        4.8956726264554113        5.0000000000000000        5.1020408163265305        5.2040816326530610      -0.20408163265306120      -0.10204081632653060        0.0000000000000000       0.10774761949937769       0.21549523824456313       0.32324285491463040       0.43099046668128510       0.53873806718901107       0.64648564202944392       0.75423315847898309       0.86198054212578579       0.96972762340380447        1.0774740144408637        1.1852188221035118        1.2929599667422200        1.4006925179378875        1.5084044639104919        1.6160654309229880        1.7235952320820487        1.8307744265734682        1.9370007296056431        2.0407451333284592        2.1390691603318510        2.2314179935229648        2.3187409926296740        2.4025201655426662        2.4843639291183162        2.5658893195751662        2.6487052453160076        2.7344013771225382        2.8244518056788133        2.9198606241670402        3.0202763637873988        3.1230783254672532        3.2268231585857743        3.3309229213251013        3.4351580321014237        3.5394466802153755        3.6437573571418822        3.7480773984889586        3.8524015147110289        3.9567274314990404        4.0610541515402288        4.1653812320037433        4.2697084747614875        4.3740357907653298        4.4783631398825889        4.5826905039918033        4.6870178748938693        4.7913452488627000        4.8956726241790118        5.0000000000000000        5.1020408163265305        5.2040816326530610      -0.20408163265306120      -0.10204081632653060        0.0000000000000000       0.10774762371144501       0.21549524965352421       0.32324288160386033       0.43099052755729977       0.53873820537207218       0.64648595539818698       0.75423386902162759       0.86198215329885530       0.96973127728583786        1.0774823029630414        1.1852376319309006        1.2930026824868963        1.4007896202739640        1.5086254851254024        1.6165690468739324        1.7247413831663632        1.8333568446072670        1.9425940328047968        2.0512943410888114        2.1510240160700844        2.2420378466414612        2.3266083039735093        2.4069676172517975        2.4851200449335327        2.5629329369285863        2.6422575476802024        2.7250534324818307        2.8134969495688007        2.9098670007231640        3.0147715853158701        3.1204597133673331        3.2256297151234881        3.3303851612432243        3.4349161366518501        3.5393377720507848        3.6437082605733782        3.7480552422239102        3.8523915087882172        3.9567229106455093        4.0610521083488766        4.1653803084258056        4.2697080572368424        4.3740356020079165        4.4783630545615605        4.5826904654654994        4.6870178575905665        4.7913452412998971        4.8956726213393411        5.0000000000000000        5.1020408163265305        5.2040816326530610      -0.20408163265306120      -0.10204081632653060        0.0000000000000000       0.10774762558299605       0.21549525472516898       0.32324289347366536       0.43099055464183267       0.53873826687112980       0.64648609491053344       0.75423418550094379       0.86198287146839803       0.96973290820207958        1.0774860119198475        1.1852460891043344        1.2930220628293365        1.4008344494247846        1.5087310117573787        1.6168255809226764        1.7254014570598595        1.8352203782113354        1.9486245493982661        2.0715867254448668        2.1723507212025734        2.2597423737788143        2.3392324887019553        2.4139558550211744        2.4862643620217124        2.5582124873591736        2.6318276180428413        2.7093786042111558        2.7938540224405251        2.8904805676806720        3.0086613556540902        3.1185249481802084        3.2249305130489048        3.3301081032809563        3.4347998216720397        3.5392872769516708        3.6436859285804877        3.7480452654892620        3.8523870273366545        3.9567208916594163        4.0610511972834162        4.1653798969401388        4.2697078712935008        4.3740355179595278        4.4783630165697232        4.5826904483070381        4.6870178498811965        4.7913452379285060        4.8956726200727756        5.0000000000000000        5.1020408163265305        5.2040816326530610      -0.20408163265306120      -0.10204081632653060        0.0000000000000000       0.10774762370130966       0.21549524963339878       0.32324288157398601       0.43099052751801087       0.53873820532379280       0.64648595534142583       0.75423386895697331       0.86198215322697003       0.96973127720745078        1.0774823028789411        1.1852376318419282        1.2930026823939360        1.4007896201779348        1.5086254850272502        1.6165690467746221        1.7247413830668750        1.8333568445086144        2.0000000000000000        2.1164848328576067        2.2066363197303387        2.2855874011697845        2.3569393179410376        2.4235699846018255        2.4877960212721097        2.5516536737755260        2.6171415388627293        2.6864576117050425        2.7622663632090712        2.8478758926758347        3.0000000000000000        3.1204597132703578        3.2256297150254478        3.3303851611451076        3.4349161365545990        3.5393377719553158        3.6437082604805822        3.7480552421346460        3.8523915087033043        3.9567229105657229        4.0610521082749402        4.1653803083583840        4.2697080571765351        4.3740356019552582        4.4783630545170068        4.5826904654294287        4.6870178575632773        4.7913452412816042        4.8956726213301724        5.0000000000000000        5.1020408163265305        5.2040816326530610      -0.20408163265306120      -0.10204081632653060        0.0000000000000000       0.10774762370130966       0.21549524963339878       0.32324288157398601       0.43099052751801087       0.53873820532379280       0.64648595534142583       0.75423386895697331       0.86198215322697003       0.96973127720745078        1.0774823028789411        1.1852376318419282        1.2930026823939360        1.4007896201779348        1.5086254850272502        1.6165690467746221        1.7247413830668750        1.8333568445086144        2.0000000000000000        2.1164848328576067        2.2066363197303387        2.2855874011697845        2.3569393179410376        2.4235699846018255        2.4877960212721097        2.5516536737755260        2.6171415388627293        2.6864576117050425        2.7622663632090712        2.8478758926758347        3.0000000000000000        3.1204597132703578        3.2256297150254478        3.3303851611451076        3.4349161365545990        3.5393377719553158        3.6437082604805822        3.7480552421346460        3.8523915087033043        3.9567229105657229        4.0610521082749402        4.1653803083583840        4.2697080571765351        4.3740356019552582        4.4783630545170068        4.5826904654294287        4.6870178575632773        4.7913452412816042        4.8956726213301724        5.0000000000000000        5.1020408163265305        5.2040816326530610      -0.20408163265306120      -0.10204081632653060        0.0000000000000000       0.10774762370130966       0.21549524963339878       0.32324288157398601       0.43099052751801087       0.53873820532379280       0.64648595534142583       0.75423386895697331       0.86198215322697003       0.96973127720745078        1.0774823028789411        1.1852376318419282        1.2930026823939360        1.4007896201779348        1.5086254850272502        1.6165690467746221        1.7247413830668750        1.8333568445086144        2.0000000000000000        2.1164848328576067        2.2066363197303387        2.2855874011697845        2.3569393179410376        2.4235699846018255        2.4877960212721097        2.5516536737755260        2.6171415388627293        2.6864576117050425        2.7622663632090712        2.8478758926758347        3.0000000000000000        3.1204597132703578        3.2256297150254478        3.3303851611451076        3.4349161365545990        3.5393377719553158        3.6437082604805822        3.7480552421346460        3.8523915087033043        3.9567229105657229        4.0610521082749402        4.1653803083583840        4.2697080571765351        4.3740356019552582        4.4783630545170068        4.5826904654294287        4.6870178575632773        4.7913452412816042        4.8956726213301724        5.0000000000000000        5.1020408163265305        5.2040816326530610     