 VARIABLES = "X", "Y", "RHO", "RHO_U", "RHO_V", "RHO_E"
 ZONE I=          11 , J=           7 , K=           1 , DATAPACKING=BLOCK, VARLOCATION=([3, 4, 5, 6]=CELLCENTERED)
  -1.6666667163372040      -0.83333335816860199        0.0000000000000000       0.83333335816860199        2.0000000000000000        2.5000000000000000        3.0000000000000000        4.1666665673255920        5.0000000000000000        5.8333333581686020        6.6666667163372040       -1.6666667163372040      -0.83333335816860199        0.0000000000000000       0.83333335816860199        2.0000000000000000        2.5000000000000000        3.0000000000000000        4.1666665673255920        5.0000000000000000        5.8333333581686020        6.6666667163372040       -1.6666667163372040      -0.83333335816860199        0.0000000000000000       0.83333335816860199        2.0000000000000000        2.5000000000000000        3.0000000000000000        4.1666665673255920        5.0000000000000000        5.8333333581686020        6.6666667163372040       -1.6666667163372040      -0.83333335816860199        0.0000000000000000       0.83333335816860199        1.6666667064761413        2.5000000130283988        3.3333333949545012        4.1666666017775045        5.0000000000000000        5.8333333581686020        6.6666667163372040       -1.6666667163372040      -0.83333335816860199        0.0000000000000000       0.83333335816860199        2.0000000000000000        2.5000000000000000        3.0000000000000000        4.1666665673255920        5.0000000000000000        5.8333333581686020        6.6666667163372040       -1.6666667163372040      -0.83333335816860199        0.0000000000000000       0.83333335816860199        2.0000000000000000        2.5000000000000000        3.0000000000000000        4.1666665673255920        5.0000000000000000        5.8333333581686020        6.6666667163372040       -1.6666667163372040      -0.83333335816860199        0.0000000000000000       0.83333335816860199        2.0000000000000000        2.5000000000000000        3.0000000000000000        4.1666665673255920        5.0000000000000000        5.8333333581686020        6.6666667163372040     
  -1.0000000000000000       -1.0000000000000000       -1.0000000000000000       -1.0000000000000000       -1.0000000000000000      -0.89999999850988388       -1.0000000000000000       -1.0000000000000000       -1.0000000000000000       -1.0000000000000000       -1.0000000000000000      -0.50000000000000000      -0.50000000000000000      -0.50000000000000000      -0.50000000000000000      -0.50000000000000000      -0.39999999850988388      -0.50000000000000000      -0.50000000000000000      -0.50000000000000000      -0.50000000000000000      -0.50000000000000000        0.0000000000000000        0.0000000000000000        0.0000000000000000        0.0000000000000000        0.0000000000000000       0.10000000149011612        0.0000000000000000        0.0000000000000000        0.0000000000000000        0.0000000000000000        0.0000000000000000       0.50000000000000000       0.50000000000000000       0.50000000000000000       0.50000000000000000       0.50000000000000000       0.50000000000000000       0.50000000000000000       0.50000000000000000       0.50000000000000000       0.50000000000000000       0.50000000000000000        1.0000000000000000        1.0000000000000000        1.0000000000000000        1.0000000000000000        1.0000000000000000       0.89999999850988388        1.0000000000000000        1.0000000000000000        1.0000000000000000        1.0000000000000000        1.0000000000000000        1.5000000000000000        1.5000000000000000        1.5000000000000000        1.5000000000000000        1.5000000000000000        1.3999999985098839        1.5000000000000000        1.5000000000000000        1.5000000000000000        1.5000000000000000        1.5000000000000000        2.0000000000000000        2.0000000000000000        2.0000000000000000        2.0000000000000000        2.0000000000000000        1.8999999985098839        2.0000000000000000        2.0000000000000000        2.0000000000000000        2.0000000000000000        2.0000000000000000     
   0.0000000000000000        0.0000000000000000        1.0000000000000000        1.0000000000000000        1.0000000000000000        1.0000000000000000        1.0000000000000000        1.0000000000000000        1.0000000000000000        1.0000000000000000        0.0000000000000000        0.0000000000000000        1.0000000000000000        1.0000000000000000        1.0000000000000000        1.0000000000000000        1.0000000000000000        1.0000000000000000        1.0000000000000000        1.0000000000000000        1.0000000000000000        1.0000000000000000        1.0000000000000000        1.0000000000000000        1.0000000000000000        1.0000000000000000        1.0000000000000000        1.0000000000000000        1.0000000000000000        1.0000000000000000        1.0000000000000000        1.0000000000000000        1.0000000000000000        1.0000000000000000        1.0000000000000000        1.0000000000000000        1.0000000000000000        1.0000000000000000        1.0000000000000000        1.0000000000000000        0.0000000000000000        0.0000000000000000        1.0000000000000000        1.0000000000000000        1.0000000000000000        1.0000000000000000        1.0000000000000000        1.0000000000000000        0.0000000000000000        0.0000000000000000        0.0000000000000000        0.0000000000000000        1.0000000000000000        1.0000000000000000        1.0000000000000000        1.0000000000000000        1.0000000000000000        1.0000000000000000        0.0000000000000000        0.0000000000000000     
   0.0000000000000000        0.0000000000000000       0.30000001192092896       0.30000001192092896       0.32686023857241192       0.32686023857241192       0.30000001192092896       0.30000001192092896       0.30000001192092896       0.30000001192092896        0.0000000000000000        0.0000000000000000       0.30000001192092896       0.30000001192092896       0.32686023857241192       0.32686023857241192       0.30000001192092896       0.30000001192092896       0.30000001192092896       0.30000001192092896       0.30000001192092896       0.30000001192092896       0.30000001192092896       0.30000001192092896       0.33171112257251922       0.33171112257251922       0.30000001192092896       0.30000001192092896       0.30000001192092896       0.30000001192092896       0.30000001192092896       0.30000001192092896       0.30000001192092896       0.30000001192092896       0.33171112257251922       0.33171112257251922       0.30000001192092896       0.30000001192092896       0.30000001192092896       0.30000001192092896        0.0000000000000000        0.0000000000000000       0.30000001192092896       0.30000001192092896       0.32686023857241192       0.32686023857241192       0.30000001192092896       0.30000001192092896        0.0000000000000000        0.0000000000000000        0.0000000000000000        0.0000000000000000       0.30000001192092896       0.30000001192092896       0.32686023857241192       0.32686023857241192       0.30000001192092896       0.30000001192092896        0.0000000000000000        0.0000000000000000     
   0.0000000000000000        0.0000000000000000        0.0000000000000000        0.0000000000000000        6.5372048688601817E-002  -6.5372048688601817E-002   0.0000000000000000        0.0000000000000000        0.0000000000000000        0.0000000000000000        0.0000000000000000        0.0000000000000000        0.0000000000000000        0.0000000000000000        6.5372048688601817E-002  -6.5372048688601817E-002   0.0000000000000000        0.0000000000000000        0.0000000000000000        0.0000000000000000        0.0000000000000000        0.0000000000000000        0.0000000000000000        0.0000000000000000        3.2845874490384522E-002  -3.2845874490384522E-002   0.0000000000000000        0.0000000000000000        0.0000000000000000        0.0000000000000000        0.0000000000000000        0.0000000000000000        0.0000000000000000        0.0000000000000000       -3.2845874490384522E-002   3.2845874490384522E-002   0.0000000000000000        0.0000000000000000        0.0000000000000000        0.0000000000000000        0.0000000000000000        0.0000000000000000        0.0000000000000000        0.0000000000000000       -6.5372048688601817E-002   6.5372048688601817E-002   0.0000000000000000        0.0000000000000000        0.0000000000000000        0.0000000000000000        0.0000000000000000        0.0000000000000000        0.0000000000000000        0.0000000000000000       -6.5372048688601817E-002   6.5372048688601817E-002   0.0000000000000000        0.0000000000000000        0.0000000000000000        0.0000000000000000     
   0.0000000000000000        0.0000000000000000        1.8307142722606660        1.8307142722606660        1.8412698288390668        1.8412698288390668        1.8307142722606660        1.8307142722606660        1.8307142722606660        1.8307142722606660        0.0000000000000000        0.0000000000000000        1.8307142722606660        1.8307142722606660        1.8412698288390668        1.8412698288390668        1.8307142722606660        1.8307142722606660        1.8307142722606660        1.8307142722606660        1.8307142722606660        1.8307142722606660        1.8307142722606660        1.8307142722606660        1.8412698288390668        1.8412698288390668        1.8307142722606660        1.8307142722606660        1.8307142722606660        1.8307142722606660        1.8307142722606660        1.8307142722606660        1.8307142722606660        1.8307142722606660        1.8412698288390668        1.8412698288390668        1.8307142722606660        1.8307142722606660        1.8307142722606660        1.8307142722606660        0.0000000000000000        0.0000000000000000        1.8307142722606660        1.8307142722606660        1.8412698288390668        1.8412698288390668        1.8307142722606660        1.8307142722606660        0.0000000000000000        0.0000000000000000        0.0000000000000000        0.0000000000000000        1.8307142722606660        1.8307142722606660        1.8412698288390668        1.8412698288390668        1.8307142722606660        1.8307142722606660        0.0000000000000000        0.0000000000000000     
